 --invoking executable--
/blue/bartlett/z.windom/TBLIS/xjoda


   *************************************************************************
         <<<     CCCCCC     CCCCCC   |||     CCCCCC     CCCCCC   >>>
       <<<      CCC        CCC       |||    CCC        CCC         >>>
      <<<      CCC        CCC        |||   CCC        CCC            >>>
    <<<        CCC        CCC        |||   CCC        CCC              >>>
      <<<      CCC        CCC        |||   CCC        CCC            >>>
       <<<      CCC        CCC       |||    CCC        CCC         >>>
         <<<     CCCCCC     CCCCCC   |||     CCCCCC     CCCCCC   >>>
   *************************************************************************

     ****************************************************************
     * CFOUR Coupled-Cluster techniques for Computational Chemistry *
     ****************************************************************


   Department of Chemistry                Institut fuer Physikalische Chemie
   University of Texas at Austin          Universitaet Mainz
   Austin, TX  78712, USA                 D-55099 Mainz, Germany

                       Version 2.1

                     login9.ufhpc                                      
                     Mon Oct 21 18:06:31 EDT 2024                      
                     integer*8 version is running

********************************************************************************
*                          Input from ZMAT file                                *
********************************************************************************
nih test                                                                        
HE 0. 0.0 0.                                                                    
                                                                                
*CFOUR(UNITS=ANGSTROM,COORDINATES=CARTESIAN                                     
CALC=LCCD,BASIS=SPECIAL                                                         
CC_PROG=NCC,MEMORY=4,MEM_UNIT=GB)                                               
                                                                                
HE:CC-PVDZ                                                                      
                                                                                
********************************************************************************
    -------------------------------------------------------------------
                    CFOUR Control Parameters 
    -------------------------------------------------------------------
        External           Internal           Value            Units
          Name               Name
    -------------------------------------------------------------------
       ABCDTYPE             IABCDT         STANDARD    [  0]    ***   
       ANHARMONIC           IANHAR         OFF         [  0]    ***   
       ANH_ALGORIT          IANALG         STANDARD    [  0]    ***   
       ANH_DERIVAT          IANDER         SECOND      [  1]    ***   
       ANH_MODE             ANHMOD         VIBRATION   [  0]    ***   
       ANH_POINTS           IANPOI              1               ***   
       ANH_STEPSIZ          ICUBST             50000          x 10-6  
       ANH_SYMMETR          IANHSM         ABELIAN     [  0]    ***   
       AO_LADDERS           IAOLAD         SINGLEPASS  [  1]    ***   
       AUXBASIS             IAUXBS         AUTO        [  0]    ***   
       AV_SCF               IAVSCF         OFF         [  0]    ***   
       BASIS                IBASIS         SPECIAL     [  0]    ***   
       BFIELD               IBFIEL         OFF         [  0]    a.u.  
       BOTHVECTORS          BOTHVC         OFF         [  0]    ***   
       BOX_POTENT           IPIAB          OFF         [  0]    ***   
       BREIT                IBREIT         OFF         [  0]    ***   
       BRUCK_CONV           IBRTOL          10D-  4             ***   
       BRUECKNER            IBRKNR         OFF         [  0]    ***   
       BUFFERSIZE           IBUFFS              4096            ***   
       CACHE_RECS           ICHREC             10               ***   
       CALCLEVEL            ICLLVL         LCCD        [  5]    ***   
       CAS_GECCO            ICMRCC         OFF         [  0]    ***   
       CAS_GUESS            ICGUES         CANONICAL   [  0]    ***   
       CAS_INPUT            ICSINP         ORBITALS    [  0]    ***   
       CAS_ITMAX            ICITMX          10D- 50           cycles  
       CAS_JACDAV           ICJDAV         OFF         [  0]    ***   
       CAS_MICMAX           ICMIMN          10D- 10             ***   
       CAS_MICMIN           ICMIMX          10D-  2             ***   
       CAS_MICRO            ICSALG         ILU/JACOBI  [  0]    ***   
       CAS_MITMAX           ICMIMX          10D-100           cycles  
       CAS_MMAX             ICMMAX          10D- 50             ***   
       CAS_PRINT            ICPRT           10D-  0             ***   
       CCORBOPT             ICCORB         OFF         [  0]    ***   
       CC_CONV              ICCCNV          10D-  7             ***   
       CC_EXPORDER          ICCEOR              5               ***   
       CC_EXTRAPOL          ICCEXT         DIIS        [  1]    ***   
       CC_GUESS             ICCGES         MP2         [  0]    ***   
       CC_MAXCYC            ICCCYC            100              cycles 
       CC_PROGRAM           ICCPRO         NCC         [  5]    ***   
       CHARGE               ICHRGE              0               ***   
       CHOLESKY             ICHOLE         OFF         [  0]    ***   
       CIS_CONV             ICISTL              5               ***   
       COMM_SIZE            IPSIZE            131072            ***   
       CONSTANT             ICONST         OLD         [  1]    ***   
       CONTINUUM            ICONTU         NONE        [  0]    ***   
       CONTRACTION          ICNTYP         GENERAL     [  1]    ***   
       COORDINATES          ICOORD         CARTESIAN   [  1]    ***   
       CPHF_CONVER          ICPHFT          10D- 16             ***   
       CPHF_MAXCYC          ICPHFC             64              cycles 
       CUBIC                ICUBIC         OFF         [  0]    ***   
       CURVILINEAR          ICURVY         OFF         [  0]    ***   
       CV_ELEMENT           ICVELM              0               ***   
       CV_ORBITALS          ICVORB      NONE         
       CV_SEPARATE          ICVSEP         OFF         [  0]    ***   
       DBOC                 IDBOC          OFF         [  0]    ***   
       DCT                  IDCT           OFF         [  0]    ***   
       DERIV_LEV            IDRLVL         ZERO        [  0]    ***   
       DEVMEM_SIZE          IDVMEM         *********           MByte  
       DF                   IDF            OFF         [  0]    ***   
       DIAG_MRCC            IEOMST          10D-  0             ***   
       DIFF_TYPE            IDIFTY         RELAXED     [  0]    ***   
       DIRECT               IDIRCT         OFF         [  0]    ***   
       DROPMO               IDRPMO      NONE         
       ECP                  IECP           OFF         [  0]    ***   
       EIGENVECTOR          IVEC                1               ***   
       EL_ANHARM            IELANH         OFF         [  0]    ***   
       EOMFOLLOW            IEOMSR         ENERGY      [  0]    ***   
       EOMIP                IEOMIP         OFF         [  0]    ***   
       EOMLEVEL             HBARFM         SAME        [  0]    ***   
       EOM_MRCC             IMRCCE         NEW         [  1]    ***   
       EOM_NONIT            EOMNON         OFF         [  0]    ***   
       EOM_NSING            IEOMSI   0,
       EOM_NSTATES          IMRCCD         DAVIDSON    [  0]    ***   
       EOM_NTRIP            IEOMTR   0,
       EOM_ORDER            IEXORD         ENERGY      [  0]    ***   
       EOM_PROPSTA          IEOMST              0               ***   
       ESTATE_CONV          IEXTOL          10D-  5             ***   
       ESTATE_DERI          IESTDR            999               ***   
       ESTATE_DIAG          IEXDIG         ITERATIVE   [  0]    ***   
       ESTATE_LOCK          IESLOC         ON          [  1]    ***   
       ESTATE_MAXC          IEXMXC             40               ***   
       ESTATE_PROP          IEXPRP         OFF         [  0]    ***   
       EVAL_HESS            IRECAL              0            # of cyc.
       EXCITATION           IEXCIT              0               ***   
       EXCITE               IEXCIT         NONE        [  0]    ***   
       EXTERN_POT           IEXPOT         OFF         [  0]    ***   
       FCGRADNEW            IFCGNW         OFF         [  0]    ***   
       FC_FIELD             IFINFC              0             x 10-6  
       FD_CALTYPE           IFDCAL         GRADONLY    [  0]    ***   
       FD_PROJECT           IFDPRJ         OFF         [  1]    ***   
       FD_STEPSIZE          IDISFD              0            10-4 bohr
       FD_USEGROUP          IFDGRP         FULL        [  0]    ***   
       FILE_RECSIZ          IFLREC              4096           words  
       FINITE_PERT          IFIPER              0             x 10-6  
       FIXGEOM              IFIXGM         OFF         [  0]    ***   
       FOCK                 IFOCK          AO          [  1]    ***   
       FREQ_ALGORI          IVIALG         STANDARD    [  0]    ***   
       FROZEN_CORE          IFROCO         OFF         [  0]    ***   
       FROZEN_VIRT          IFROVI         OFF         [  0]    ***   
       GAMMA_ABCD           IGABCD         STORE       [  0]    ***   
       GAMMA_ABCI           IGABCI         STORE       [  0]    ***   
       GENBAS_1             IGNBS1              0               ***   
       GENBAS_2             IGNBS2              0               ***   
       GENBAS_3             IGNBS3              0               ***   
       GENBAS_4             IGNBS4              0               ***   
       GEO_CONV             ICONTL              5              H/bohr 
       GEO_MAXCYC           IOPTCY             50               ***   
       GEO_MAXSTEP          IMXSTP            300            millibohr
       GEO_METHOD           INR            SINGLE_POINT[  5]    ***   
       GIAO                 IGIAO          OFF         [  1]    ***   
       GIMIC                IGIMIC         OFF         [  0]    ***   
       GRID                 IGRID          OFF         [  0]    ***   
       GRID_ALGO            IGALGO         SERIAL      [  0]    ***   
       GUESS                IGUESS         MOREAD      [  0]    ***   
       HBAR                 IHBAR          OFF         [  0]    ***   
       HESS_TYPE            IHESTP         SCF         [  0]    ***   
       HF2_FILE             IHF2Fl         USE         [  1]    ***   
       HFSTABILITY          ISTABL         OFF         [  0]    ***   
       INCORE               INCORE         OFF         [  0]    ***   
       INPUT_MRCC           IMRCC          ON          [  1]    ***   
       INTEGRALS            INTTYP         VMOL        [  1]    ***   
       IRPSING              IRPSNG              0               ***   
       JODA_PRINT           IJPRNT              0               ***   
       KEYWORD_OUT          IDMPKW         NO          [  0]    ***   
       LINDEP_TOL           ILINDP              8               ***   
       LINEQ_CONV           IZTACN          10D-  7           cycles  
       LINEQ_EXPOR          ILMAXD              5               ***   
       LINEQ_MAXCY          ILMAXC            100               ***   
       LINEQ_TYPE           ILTYPE         DIIS        [  1]    ***   
       LMP2_TYP             ILMP2T         VERSION1    [  0]    ***   
       LOCK_ORBOCC          ILOCOC         OFF         [  0]    ***   
       LOC_CONV             ILOCTY          10D-  7             ***   
       LOC_TYP              ILOCPR         PIPEK-MEZEY [  0]    ***   
       MEMORY_SIZE          IMEMSZ         500000000           words  
       MEM_UNIT             IMEMU          GB          [  3]    ***   
       MRCC                 IMRCCC         OFF         [  0]    ***   
       MULTIPLICTY          IMULTP              1               ***   
       NACOUPLING           IVCOUP         OFF         [  0]    ***   
       NCONTINUUM           INCONT              0               ***   
       NEGEVAL              IDIE           ABORT       [  0]    ***   
       NEWNORM              INEWNO         OFF         [  0]    ***   
       NON-HF               INONHF         OFF         [  0]    ***   
       NTOP_TAMP            ITOPT2             15               ***   
       NUC_MODEL            INUCMO         POINT       [  0]    ***   
       OCCUPATION           IOCCU   ESTIMATED BY SCF 
       OPEN-SHELL           IOPEN          SPIN-ORBITAL[  0]    ***   
       OPTVIB               IOPTVB         OFF         [  0]    ***   
       ORBITALS             IORBTP         STANDARD    [  0]    ***   
       PARALLEL             IPARAL         ON          [  1]    ***   
       PARA_INT             IPINTS         ON          [  1]    ***   
       PARA_PRINT           IPPRIN              0               ***   
       PERT_ORB             IPTORB         STANDARD    [  0]    ***   
       PNO_THR              IPNOTH          10D-  6             ***   
       PNO_USE              IPNOUS         OFF         [  0]    ***   
       POINTS               IGRDFD              0               ***   
       PRINT                IPRNT               0               ***   
       PROPS                IPROPS         OFF         [  0]    ***   
       PROP_INTEGR          IINTYP         INTERNAL    [  0]    ***   
       PSI                  IPSI           OFF         [  0]    ***   
       QC_ALG               IQCALG         FLM         [  0]    ***   
       QC_LINALG            IQCLIN         TRIDIAG     [  2]    ***   
       QC_MAXCYC            IQCMAX            100             cycles  
       QC_MAXSCFCY          IQCMSC             20             cycles  
       QC_NOISE             IQCNOI         OFF         [  0]    ***   
       QC_RTRUST            IQCRTR          10D-  0           x 10-3  
       QC_SKIPSCF           IQCSKI         OFF         [  0]    ***   
       QC_START             IQCSTA          10D-  3             ***   
       QRHFGUESS            IQGUES         OFF         [  0]    ***   
       QUARTIC              IQUART         OFF         [  0]    ***   
       RAMAN_INT            IRAMIN         OFF         [  0]    ***   
       RAMAN_ORB            IRAMRE         UNRELAXED   [  0]    ***   
       RDO                  IRDOFM         OFF         [  0]    ***   
       REDUCE_REPR          REDREP         IR          [  0]    ***   
       REFERENCE            IREFNC         RHF         [  0]    ***   
       RELATIVIST           IRELAT         OFF         [  0]    ***   
       RELAX_DENS           IRDENS         OFF         [  0]    ***   
       RESET_FLAGS          IRESET         OFF         [  0]    ***   
       RESTART_CC           ICCRES         OFF         [  0]    ***   
       ROT_EVEC             ROTVEC              0               ***   
       SACC_ANSATZ          ISAANS         COS-CC      [  0]    ***   
       SACC_CALC            ISACLC         DENSITY     [  0]    ***   
       SACC_ORBS            ISAORB         STANDARD    [  0]    ***   
       SACC_PROP            ISAPRP         RELAXED     [  0]    ***   
       SAVE_INTS            ISVINT         OFF         [  0]    ***   
       SCALE_ON             ISTCRT              0               ***   
       SCF_CONV             ISCFCV          10D-  7             ***   
       SCF_DAMPING          IDAMP               0             x 10-3  
       SCF_EXPORDE          IRPPOR             10               ***   
       SCF_EXPSTAR          IRPPLS              2               ***   
       SCF_EXTRAPO          IRPP           ON          [  1]    ***   
       SCF_MAXCYC           ISCFCY            150              cycles 
       SCF_NOSTOP           ISCFST         OFF         [  0]    ***   
       SCF_ORBITAL          ISCFOR         REAL        [  0]    ***   
       SCF_PRINT            ISCFPR              0               ***   
       SCF_PROG             ISCFPR         SCF         [  0]    ***   
       SD_FIELD             IFINSD              0             x 10-6  
       SOPERT               IPERSO         OFF         [  0]    ***   
       SPHERICAL            IDFGHI         ON          [  1]    ***   
       SPINORBIT            ISOCAL         OFF         [  0]    ***   
       SPINROTATIO          ISRCON         OFF         [  0]    ***   
       SPIN_FLIP            ISPFLP         OFF         [  0]    ***   
       SPIN_ORBIT           ISPORB         OFF         [  0]    ***   
       SPIN_SCAL            ISCSMP         OFF         [  0]    ***   
       STAB_FOLLOW          ISFOLL         PLUS        [  0]    ***   
       STEEPSCALE           ISTPSC              1000          x 10-3  
       STEOM_ACT            STMACT         CANONICAL   [  0]    ***   
       STEOM_OCUT           STOCUT            200               ***   
       STEOM_VCUT           STVCUT            100               ***   
       SUBGROUP             ISUBGP         DEFAULT     [  0]    ***   
       SUBGRPAXIS           ISBXYZ         X           [  0]    ***   
       SYMMETRY             ISYM           ON          [  0]    ***   
       SYM_CHECK            ISYMCK         OVERRIDE    [  1]    ***   
       T3_EXTRAPOL          IT3EXT         OFF         [  0]    ***   
       T4_EXTRAPOL          IT4EXP         OFF         [  0]    ***   
       TAMP_SUM             IEVERY              5               ***   
       TESTSUITE            ITESTS         OFF         [  0]    ***   
       THC                  ITHC           OFF         [  0]    ***   
       THERMOCH             ITHERM         OFF         [  0]    ***   
       TOL_CHOLESK          ITOLCH          10D-  4             ***   
       TRANGRAD             IRESRM         OFF         [  0]    ***   
       TRANS_INV            ITRAIN         USE         [  0]    ***   
       TREAT_PERT           ITREAT         SIMULTANEOUS[  0]    ***   
       TRIP_ALGORI          ITRALG         NORMAL      [  0]    ***   
       TWOSTATE             ITWOST         OFF         [  0]    ***   
       UIJ_THRESHO          IUIJTH              1               ***   
       UNITS                IUNITS         ANGSTROM    [  0]    ***   
       UNOS                 IUNOS          OFF         [  0]    ***   
       UPDATE_HESS          IHUPDT         ON          [  1]    ***   
       VIBPHASE             ISETPH         STANDARD    [  0]    ***   
       VIBRATION            IVIB           NO          [  0]    ***   
       VIB_ALGORIT          IGEALG         STANDARD    [  0]    ***   
       VNATORB              IVNORB         OFF         [  0]    ***   
       VTRAN                IVTRAN         FULL/PARTIAL[  0]    ***   
       X2CKEY               IX2CKE         MOLVDINT    [  0]    ***   
       XFIELD               IXEFLD              0             x 10-6  
       XFORM_TOL            IXFTOL          10D- 11             ***   
       YFIELD               IYEFLD              0             x 10-6  
       ZFIELD               IZEFLD              0             x 10-6  
       ZSCALE_EXP           IZEXPS         OFF         [  0]    ***   
    -------------------------------------------------------------------
 cholesky/tol? F   1.0000000000000005E-004
  @GETXYZ-I,     1 atoms read from ZMAT.
Line Symbol    AtNr   At. Mass
  1  HE         2     4.00260
Line Symbol    AtNr   At. Mass
  1  HE         2     4.00260
                    1                    4                    0
   Rotational constants (in cm-1): 

   Rotational constants (in MHz): 

********************************************************************************
   The full molecular point group is I h .
   The largest Abelian subgroup of the full molecular point group is D2h .
   The computational point group is D2h .
********************************************************************************
  ECPDATA file not present.   Using default ECPDATA. 
 --invoking executable--
/blue/bartlett/z.windom/TBLIS/set_ecpdata
--executable set_ecpdata finished with status     0 in        0.03 seconds (walltime).
 cholesky/tol? F   1.0000000000000005E-004
  There are    5 basis functions.
 @GEOPT-W, Archive file not created for single-point calculation.
 @CHECKOUT-I, Total execution time (CPU/WALL):         0.13/       0.34 seconds.
--executable xjoda finished with status     0 in        0.65 seconds (walltime).
 --invoking executable--
/blue/bartlett/z.windom/TBLIS/xnmol
OMP_NUM_THREADS not specified; defaulting to 1
Running with 1 threads/proc

********************************************************************************
                   INPUT FROM MOL FILE                                          
********************************************************************************
INTGRL        1    0    1    0    0    0    0    0    0
         *** CFOUR Program System (Release V0.1) *** 
nih test
    1    3 X  Y   Z   0.10E-08              0    0
   9999.00      3.00
          2.00000000    1    2    1    1
HE#1   0.000000000000000   0.000000000000000   0.000000000000000
    4    2
   38.359999999999999        2.3809000000000000E-002   0.0000000000000000     
   5.7699999999999996       0.15489100000000000        0.0000000000000000     
   1.2400000000000000       0.46998699999999999        0.0000000000000000     
  0.29759999999999998       0.51302700000000001        1.0000000000000000     
    1    1
   1.2749999999999999        1.0000000000000000     
FINISH
                                                                                
********************************************************************************

ONE- AND TWO-ELECTRON INTEGRALS OVER SYMMETRY-ADAPTED AOS ARE CALCULATED.

SPHERICAL HARMONICS ARE USED.

REFLECTION IN THE YZ-PLANE
REFLECTION IN THE XZ-PLANE
REFLECTION IN THE XY-PLANE

INTEGRALS LESS THAN 1e-14 ARE NEGLECTED.

One-electron integrals took 0.002 seconds

  @TWOEL-I,          9 INTEGRALS OF SYMMETRY TYPE  I I I I
  @TWOEL-I,         12 INTEGRALS OF SYMMETRY TYPE  I J I J
  @TWOEL-I,         12 INTEGRALS OF SYMMETRY TYPE  I I J J
  @TWOEL-I, TOTAL NUMBER OF 2-E INTEGRALS 33

Two-electron integrals took 0.010 seconds

Nuclear Repulsion Energy: 0.0

Nuclear repulsion energy: 0.0
--executable xnmol finished with status     0 in        0.23 seconds (walltime).
 --invoking executable--
/blue/bartlett/z.windom/TBLIS/xnscf
OMP_NUM_THREADS not specified; defaulting to 1
Running with 1 threads/proc

There are 5 functions in the AO basis

There are 8 irreducible representations:
    Irrep 1 has 2 functions
    Irrep 2 has 1 functions
    Irrep 3 has 1 functions
    Irrep 4 has 0 functions
    Irrep 5 has 1 functions
    Irrep 6 has 0 functions
    Irrep 7 has 0 functions
    Irrep 8 has 0 functions

Parameters for SCF calculation:

        SCF reference function: RHF
  Maximum number of iterations: 150
     Full symmetry point group: I h 
     Computational point group: D2h 
        Initial density matrix: MOREAD
     SCF convergence tolerance: 10**(-7)
 DIIS convergence acceleration: ON
         Latest start for DIIS: 2
                    DIIS order: 10

Smallest overlap matrix eigenvalues:
    Symmetry       Eigenvalue
           1  1.1115509248e-01
           2  1.0000000000e+00
           3  1.0000000000e+00
           5  1.0000000000e+00

Occupancies from core Hamiltonian:
    Alpha: [1,0,0,0,0,0,0,0]
     Beta: [1,0,0,0,0,0,0,0]

Initial guess orbitals from core Hamiltonian.

--------------------------------------------------------------------
Iteration         Total Energy            Largest Density Difference
--------------------------------------------------------------------
Current occupation vector: [1,0,0,0,0,0,0,0]
     1               -2.741896806329987      1.300113597177903e+00
Current occupation vector: [1,0,0,0,0,0,0,0]
     2               -2.854409903491231      9.600171474404640e-02
Current occupation vector: [1,0,0,0,0,0,0,0]
     3               -2.855156122315744      7.893302601090335e-03
Current occupation vector: [1,0,0,0,0,0,0,0]
     4               -2.855160477034813      5.447503063682468e-05
Current occupation vector: [1,0,0,0,0,0,0,0]
     5               -2.855160477242732      2.997981418300100e-04
Current occupation vector: [1,0,0,0,0,0,0,0]
     6               -2.855160470878284      2.994473279018806e-04
Current occupation vector: [1,0,0,0,0,0,0,0]
     7               -2.855160477242740      5.488942633746774e-13

SCF has converged.

Total electron number: 2.0000000000000004

Final occupancies: [1,0,0,0,0,0,0,0]

E(SCF) = -2.8551604772427397

Orbital eigenvalues (alpha, 1H = 27.2113834 eV)

       MO #        E(hartree)               E(eV)           FULLSYM    COMPSYM
       ----   --------------------   --------------------   -------   ---------
    1     1          -0.9141479302         -24.8752298122     A g      A g  (1)
  +++++++++++++++++++++++++++++++++++++++++++++++++++++++++++++++++++++++++++++
    2     2           1.3974417092          38.0263221278     A g      A g  (1)
    3     3           2.5243720266          68.6916550595     XXXX     B3u  (2)
    4     4           2.5243720266          68.6916550595     XXXX     B2u  (3)
    5     5           2.5243720266          68.6916550595     XXXX     B1u  (5)

--executable xnscf finished with status     0 in        0.36 seconds (walltime).
  in runvcc 
 --invoking executable--
/blue/bartlett/z.windom/TBLIS/xvprop
 @GETMEM-I,  Allocated    3814 MB of main memory.
   Property integrals will be calculated.
    --------------------------------------------------------------
                                   Property evaluated at 
    Property type                X             Y             Z
    --------------------------------------------------------------
    Dipole moment               ----          ----          ----  
    Quadrupole moment           ----          ----          ----  
    Octopole moment             ----          ----          ----  
    Relativisitic corr.         ----          ----          ----  
    Second moment            0.0000000     0.0000000     0.0000000
    Electron density         0.0000000     0.0000000     0.0000000
    Field gradient           0.0000000     0.0000000     0.0000000
    Potential                0.0000000     0.0000000     0.0000000
    --------------------------------------------------------------
 @CHECKOUT-I, Total execution time (CPU/WALL):         0.01/       0.03 seconds.
--executable xvprop finished with status     0 in        0.06 seconds (walltime).
 --invoking executable--
/blue/bartlett/z.windom/TBLIS/xncc
OMP_NUM_THREADS not specified; defaulting to 1
nt: 64
Running with 1 threads/proc

Alpha Molecular Orbitals:
-------------------------

Occupied:

  Irrep 1:
       1 (   1)     -0.914148

Virtual:

  Irrep 1:
       2 (   2)      1.397442

  Irrep 2:
       3 (   3)      2.524372

  Irrep 3:
       4 (   4)      2.524372

  Irrep 5:
       5 (   5)      2.524372

Full RHF integral transformation

Occupations by irrep:
Frozen core:    [0,0,0,0,0,0,0,0]
Occupied:       [1,0,0,0,0,0,0,0]
Virtual:        [1,1,1,0,1,0,0,0]
Frozen virtual: [0,0,0,0,0,0,0,0]

Processing IIII:
  Pass 1, transforming orbitals:
    Occupied:   1:1   ---:--- ---:--- ---:--- ---:--- ---:--- ---:--- ---:---
    Virtual:    1:1     1:1     1:1   ---:---   1:1   ---:--- ---:--- ---:---

Processing IIJJ:
  Pass 1, transforming orbitals:
    Occupied:   1:1   ---:--- ---:--- ---:--- ---:--- ---:--- ---:--- ---:---
    Virtual:    1:1     1:1     1:1   ---:---   1:1   ---:--- ---:--- ---:---

Processing IJIJ:
  Pass 1, transforming orbitals:
    Occupied:   1:1   ---:--- ---:--- ---:--- ---:--- ---:--- ---:--- ---:---
    Virtual:    1:1     1:1     1:1   ---:---   1:1   ---:--- ---:--- ---:---

Processing IJKL:
  Pass 1, transforming orbitals:
    Occupied:   1:1   ---:--- ---:--- ---:--- ---:--- ---:--- ---:--- ---:---
    Virtual:    1:1     1:1     1:1   ---:---   1:1   ---:--- ---:--- ---:---

Integral transformation took 0.019 seconds at 0.000 Gflops/sec

sym_1234:          0.000020 s          1 x    0.000000 gflops/sec
layer1_axpby:      0.000040 s          3 x    0.000700 gflops/sec
weight:            0.000057 s          1 x    0.000000 gflops/sec
sym_12:            0.000067 s          1 x    0.000000 gflops/sec

MP2 correlation energy: -0.025828339552631526

Non-iterative calculation of MP2 took 0.000 cpu seconds and 0.000 walltime seconds at 0.000 Gflops/sec

Total MP2 energy: -2.880988816795371

layer1_axpby:       0.000003 s          2 x    0.001950 gflops/sec
weight:             0.000015 s          2 x    0.000000 gflops/sec
layer1_dot:         0.000017 s          2 x    0.000000 gflops/sec
layer1_spinad:      0.000101 s          2 x    0.000474 gflops/sec

Using DIIS to accelerate the convergence of T1 and T2
Beginning iterative solution of LCCD equations:

Using standard CC algorithm

It. Correlation Energy T2 Residual CPU Time (s) Walltime (s)
-------------------------------------------------------------
  1  -0.025828339552632 1.20990e-02        0.001        0.001
  2  -0.031200710308962 3.00767e-03        0.000        0.000
  3  -0.032677453821361 1.03148e-04        0.000        0.000
  4  -0.032670772993260 1.50089e-17        0.000        0.000

LCCD iterations converged in 4 cycles and 0.002 seconds (0.001 s/it.) at 0.001 Gflops/sec

LCCD correlation energy: -0.03267077299326017

layer1_fill:         0.000000 s          1 x    0.000000 gflops/sec
layer1_dot:          0.000001 s          8 x    0.000000 gflops/sec
layer1_axpby:        0.000007 s         14 x    0.017311 gflops/sec
realloc:             0.000007 s          1 x    0.000000 gflops/sec
weight:              0.000016 s          4 x    0.000000 gflops/sec
layer1_sym:          0.000235 s          8 x    0.000272 gflops/sec
layer1_spinad:       0.000535 s         20 x    0.000897 gflops/sec
c2_into_z2_rhf:      0.000586 s          4 x    0.000956 gflops/sec
lccd_rhf:            0.000756 s          4 x    0.000783 gflops/sec

LCCD correlation energy: -0.032670772993260176

Total LCCD energy: -2.8878312502359997

--executable xncc finished with status     0 in        0.23 seconds (walltime).
  The final electronic energy is        -2.887831250236000 a.u. 
  This computation required                            1.58 seconds (walltime).
