 --invoking executable--
/blue/bartlett/z.windom/TBLIS/xjoda


   *************************************************************************
         <<<     CCCCCC     CCCCCC   |||     CCCCCC     CCCCCC   >>>
       <<<      CCC        CCC       |||    CCC        CCC         >>>
      <<<      CCC        CCC        |||   CCC        CCC            >>>
    <<<        CCC        CCC        |||   CCC        CCC              >>>
      <<<      CCC        CCC        |||   CCC        CCC            >>>
       <<<      CCC        CCC       |||    CCC        CCC         >>>
         <<<     CCCCCC     CCCCCC   |||     CCCCCC     CCCCCC   >>>
   *************************************************************************

     ****************************************************************
     * CFOUR Coupled-Cluster techniques for Computational Chemistry *
     ****************************************************************


   Department of Chemistry                Institut fuer Physikalische Chemie
   University of Texas at Austin          Universitaet Mainz
   Austin, TX  78712, USA                 D-55099 Mainz, Germany

                       Version 2.1

                     login7.ufhpc                                      
                     Mon Aug 19 11:05:50 EDT 2024                      
                     integer*8 version is running

********************************************************************************
*                          Input from ZMAT file                                *
********************************************************************************
nih test                                                                        
H 0. 0.0 0.                                                                     
F 0.917 0. 0.                                                                   
                                                                                
*CFOUR(UNITS=ANGSTROM,COORDINATES=CARTESIAN                                     
CALC=LCCD,BASIS=SPECIAL,DROPMO=1                                                
CC_PROG=NCC,MEMORY=4,MEM_UNIT=GB)                                               
                                                                                
H:STO-6G                                                                        
F:STO-6G                                                                        
                                                                                
********************************************************************************
    -------------------------------------------------------------------
                    CFOUR Control Parameters 
    -------------------------------------------------------------------
        External           Internal           Value            Units
          Name               Name
    -------------------------------------------------------------------
       ABCDTYPE             IABCDT         STANDARD    [  0]    ***   
       ANHARMONIC           IANHAR         OFF         [  0]    ***   
       ANH_ALGORIT          IANALG         STANDARD    [  0]    ***   
       ANH_DERIVAT          IANDER         SECOND      [  1]    ***   
       ANH_MODE             ANHMOD         VIBRATION   [  0]    ***   
       ANH_POINTS           IANPOI              1               ***   
       ANH_STEPSIZ          ICUBST             50000          x 10-6  
       ANH_SYMMETR          IANHSM         ABELIAN     [  0]    ***   
       AO_LADDERS           IAOLAD         SINGLEPASS  [  1]    ***   
       AUXBASIS             IAUXBS         AUTO        [  0]    ***   
       AV_SCF               IAVSCF         OFF         [  0]    ***   
       BASIS                IBASIS         SPECIAL     [  0]    ***   
       BFIELD               IBFIEL         OFF         [  0]    a.u.  
       BOTHVECTORS          BOTHVC         OFF         [  0]    ***   
       BOX_POTENT           IPIAB          OFF         [  0]    ***   
       BREIT                IBREIT         OFF         [  0]    ***   
       BRUCK_CONV           IBRTOL          10D-  4             ***   
       BRUECKNER            IBRKNR         OFF         [  0]    ***   
       BUFFERSIZE           IBUFFS              4096            ***   
       CACHE_RECS           ICHREC             10               ***   
       CALCLEVEL            ICLLVL         LCCD        [  5]    ***   
       CAS_GECCO            ICMRCC         OFF         [  0]    ***   
       CAS_GUESS            ICGUES         CANONICAL   [  0]    ***   
       CAS_INPUT            ICSINP         ORBITALS    [  0]    ***   
       CAS_ITMAX            ICITMX          10D- 50           cycles  
       CAS_JACDAV           ICJDAV         OFF         [  0]    ***   
       CAS_MICMAX           ICMIMN          10D- 10             ***   
       CAS_MICMIN           ICMIMX          10D-  2             ***   
       CAS_MICRO            ICSALG         ILU/JACOBI  [  0]    ***   
       CAS_MITMAX           ICMIMX          10D-100           cycles  
       CAS_MMAX             ICMMAX          10D- 50             ***   
       CAS_PRINT            ICPRT           10D-  0             ***   
       CCORBOPT             ICCORB         OFF         [  0]    ***   
       CC_CONV              ICCCNV          10D-  7             ***   
       CC_EXPORDER          ICCEOR              5               ***   
       CC_EXTRAPOL          ICCEXT         DIIS        [  1]    ***   
       CC_GUESS             ICCGES         MP2         [  0]    ***   
       CC_MAXCYC            ICCCYC            100              cycles 
       CC_PROGRAM           ICCPRO         NCC         [  5]    ***   
       CHARGE               ICHRGE              0               ***   
       CHOLESKY             ICHOLE         OFF         [  0]    ***   
       CIS_CONV             ICISTL              5               ***   
       COMM_SIZE            IPSIZE            131072            ***   
       CONSTANT             ICONST         OLD         [  1]    ***   
       CONTINUUM            ICONTU         NONE        [  0]    ***   
       CONTRACTION          ICNTYP         GENERAL     [  1]    ***   
       COORDINATES          ICOORD         CARTESIAN   [  1]    ***   
       CPHF_CONVER          ICPHFT          10D- 16             ***   
       CPHF_MAXCYC          ICPHFC             64              cycles 
       CUBIC                ICUBIC         OFF         [  0]    ***   
       CURVILINEAR          ICURVY         OFF         [  0]    ***   
       CV_ELEMENT           ICVELM              0               ***   
       CV_ORBITALS          ICVORB      NONE         
       CV_SEPARATE          ICVSEP         OFF         [  0]    ***   
       DBOC                 IDBOC          OFF         [  0]    ***   
       DCT                  IDCT           OFF         [  0]    ***   
       DERIV_LEV            IDRLVL         ZERO        [  0]    ***   
       DEVMEM_SIZE          IDVMEM         *********           MByte  
       DF                   IDF            OFF         [  0]    ***   
       DIAG_MRCC            IEOMST          10D-  0             ***   
       DIFF_TYPE            IDIFTY         RELAXED     [  0]    ***   
       DIRECT               IDIRCT         OFF         [  0]    ***   
       DROPMO               IDRPMO   1,
       ECP                  IECP           OFF         [  0]    ***   
       EIGENVECTOR          IVEC                1               ***   
       EL_ANHARM            IELANH         OFF         [  0]    ***   
       EOMFOLLOW            IEOMSR         ENERGY      [  0]    ***   
       EOMIP                IEOMIP         OFF         [  0]    ***   
       EOMLEVEL             HBARFM         SAME        [  0]    ***   
       EOM_MRCC             IMRCCE         NEW         [  1]    ***   
       EOM_NONIT            EOMNON         OFF         [  0]    ***   
       EOM_NSING            IEOMSI   0,
       EOM_NSTATES          IMRCCD         DAVIDSON    [  0]    ***   
       EOM_NTRIP            IEOMTR   0,
       EOM_ORDER            IEXORD         ENERGY      [  0]    ***   
       EOM_PROPSTA          IEOMST              0               ***   
       ESTATE_CONV          IEXTOL          10D-  5             ***   
       ESTATE_DERI          IESTDR            999               ***   
       ESTATE_DIAG          IEXDIG         ITERATIVE   [  0]    ***   
       ESTATE_LOCK          IESLOC         ON          [  1]    ***   
       ESTATE_MAXC          IEXMXC             40               ***   
       ESTATE_PROP          IEXPRP         OFF         [  0]    ***   
       EVAL_HESS            IRECAL              0            # of cyc.
       EXCITATION           IEXCIT              0               ***   
       EXCITE               IEXCIT         NONE        [  0]    ***   
       EXTERN_POT           IEXPOT         OFF         [  0]    ***   
       FCGRADNEW            IFCGNW         OFF         [  0]    ***   
       FC_FIELD             IFINFC              0             x 10-6  
       FD_CALTYPE           IFDCAL         GRADONLY    [  0]    ***   
       FD_PROJECT           IFDPRJ         OFF         [  1]    ***   
       FD_STEPSIZE          IDISFD              0            10-4 bohr
       FD_USEGROUP          IFDGRP         FULL        [  0]    ***   
       FILE_RECSIZ          IFLREC              4096           words  
       FINITE_PERT          IFIPER              0             x 10-6  
       FIXGEOM              IFIXGM         OFF         [  0]    ***   
       FOCK                 IFOCK          AO          [  1]    ***   
       FREQ_ALGORI          IVIALG         STANDARD    [  0]    ***   
       FROZEN_CORE          IFROCO         OFF         [  0]    ***   
       FROZEN_VIRT          IFROVI         OFF         [  0]    ***   
       GAMMA_ABCD           IGABCD         STORE       [  0]    ***   
       GAMMA_ABCI           IGABCI         STORE       [  0]    ***   
       GENBAS_1             IGNBS1              0               ***   
       GENBAS_2             IGNBS2              0               ***   
       GENBAS_3             IGNBS3              0               ***   
       GENBAS_4             IGNBS4              0               ***   
       GEO_CONV             ICONTL              5              H/bohr 
       GEO_MAXCYC           IOPTCY             50               ***   
       GEO_MAXSTEP          IMXSTP            300            millibohr
       GEO_METHOD           INR            SINGLE_POINT[  5]    ***   
       GIAO                 IGIAO          OFF         [  1]    ***   
       GIMIC                IGIMIC         OFF         [  0]    ***   
       GRID                 IGRID          OFF         [  0]    ***   
       GRID_ALGO            IGALGO         SERIAL      [  0]    ***   
       GUESS                IGUESS         MOREAD      [  0]    ***   
       HBAR                 IHBAR          OFF         [  0]    ***   
       HESS_TYPE            IHESTP         SCF         [  0]    ***   
       HF2_FILE             IHF2Fl         USE         [  1]    ***   
       HFSTABILITY          ISTABL         OFF         [  0]    ***   
       INCORE               INCORE         OFF         [  0]    ***   
       INPUT_MRCC           IMRCC          ON          [  1]    ***   
       INTEGRALS            INTTYP         VMOL        [  1]    ***   
       IRPSING              IRPSNG              0               ***   
       JODA_PRINT           IJPRNT              0               ***   
       KEYWORD_OUT          IDMPKW         NO          [  0]    ***   
       LINDEP_TOL           ILINDP              8               ***   
       LINEQ_CONV           IZTACN          10D-  7           cycles  
       LINEQ_EXPOR          ILMAXD              5               ***   
       LINEQ_MAXCY          ILMAXC            100               ***   
       LINEQ_TYPE           ILTYPE         DIIS        [  1]    ***   
       LMP2_TYP             ILMP2T         VERSION1    [  0]    ***   
       LOCK_ORBOCC          ILOCOC         OFF         [  0]    ***   
       LOC_CONV             ILOCTY          10D-  7             ***   
       LOC_TYP              ILOCPR         PIPEK-MEZEY [  0]    ***   
       MEMORY_SIZE          IMEMSZ         500000000           words  
       MEM_UNIT             IMEMU          GB          [  3]    ***   
       MRCC                 IMRCCC         OFF         [  0]    ***   
       MULTIPLICTY          IMULTP              1               ***   
       NACOUPLING           IVCOUP         OFF         [  0]    ***   
       NCONTINUUM           INCONT              0               ***   
       NEGEVAL              IDIE           ABORT       [  0]    ***   
       NEWNORM              INEWNO         OFF         [  0]    ***   
       NON-HF               INONHF         OFF         [  0]    ***   
       NTOP_TAMP            ITOPT2             15               ***   
       NUC_MODEL            INUCMO         POINT       [  0]    ***   
       OCCUPATION           IOCCU   ESTIMATED BY SCF 
       OPEN-SHELL           IOPEN          SPIN-ORBITAL[  0]    ***   
       OPTVIB               IOPTVB         OFF         [  0]    ***   
       ORBITALS             IORBTP         STANDARD    [  0]    ***   
       PARALLEL             IPARAL         ON          [  1]    ***   
       PARA_INT             IPINTS         ON          [  1]    ***   
       PARA_PRINT           IPPRIN              0               ***   
       PERT_ORB             IPTORB         STANDARD    [  0]    ***   
       PNO_THR              IPNOTH          10D-  6             ***   
       PNO_USE              IPNOUS         OFF         [  0]    ***   
       POINTS               IGRDFD              0               ***   
       PRINT                IPRNT               0               ***   
       PROPS                IPROPS         OFF         [  0]    ***   
       PROP_INTEGR          IINTYP         INTERNAL    [  0]    ***   
       PSI                  IPSI           OFF         [  0]    ***   
       QC_ALG               IQCALG         FLM         [  0]    ***   
       QC_LINALG            IQCLIN         TRIDIAG     [  2]    ***   
       QC_MAXCYC            IQCMAX            100             cycles  
       QC_MAXSCFCY          IQCMSC             20             cycles  
       QC_NOISE             IQCNOI         OFF         [  0]    ***   
       QC_RTRUST            IQCRTR          10D-  0           x 10-3  
       QC_SKIPSCF           IQCSKI         OFF         [  0]    ***   
       QC_START             IQCSTA          10D-  3             ***   
       QRHFGUESS            IQGUES         OFF         [  0]    ***   
       QUARTIC              IQUART         OFF         [  0]    ***   
       RAMAN_INT            IRAMIN         OFF         [  0]    ***   
       RAMAN_ORB            IRAMRE         UNRELAXED   [  0]    ***   
       RDO                  IRDOFM         OFF         [  0]    ***   
       REDUCE_REPR          REDREP         IR          [  0]    ***   
       REFERENCE            IREFNC         RHF         [  0]    ***   
       RELATIVIST           IRELAT         OFF         [  0]    ***   
       RELAX_DENS           IRDENS         OFF         [  0]    ***   
       RESET_FLAGS          IRESET         OFF         [  0]    ***   
       RESTART_CC           ICCRES         OFF         [  0]    ***   
       ROT_EVEC             ROTVEC              0               ***   
       SACC_ANSATZ          ISAANS         COS-CC      [  0]    ***   
       SACC_CALC            ISACLC         DENSITY     [  0]    ***   
       SACC_ORBS            ISAORB         STANDARD    [  0]    ***   
       SACC_PROP            ISAPRP         RELAXED     [  0]    ***   
       SAVE_INTS            ISVINT         OFF         [  0]    ***   
       SCALE_ON             ISTCRT              0               ***   
       SCF_CONV             ISCFCV          10D-  7             ***   
       SCF_DAMPING          IDAMP               0             x 10-3  
       SCF_EXPORDE          IRPPOR             10               ***   
       SCF_EXPSTAR          IRPPLS              2               ***   
       SCF_EXTRAPO          IRPP           ON          [  1]    ***   
       SCF_MAXCYC           ISCFCY            150              cycles 
       SCF_NOSTOP           ISCFST         OFF         [  0]    ***   
       SCF_ORBITAL          ISCFOR         REAL        [  0]    ***   
       SCF_PRINT            ISCFPR              0               ***   
       SCF_PROG             ISCFPR         SCF         [  0]    ***   
       SD_FIELD             IFINSD              0             x 10-6  
       SOPERT               IPERSO         OFF         [  0]    ***   
       SPHERICAL            IDFGHI         ON          [  1]    ***   
       SPINORBIT            ISOCAL         OFF         [  0]    ***   
       SPINROTATIO          ISRCON         OFF         [  0]    ***   
       SPIN_FLIP            ISPFLP         OFF         [  0]    ***   
       SPIN_ORBIT           ISPORB         OFF         [  0]    ***   
       SPIN_SCAL            ISCSMP         OFF         [  0]    ***   
       STAB_FOLLOW          ISFOLL         PLUS        [  0]    ***   
       STEEPSCALE           ISTPSC              1000          x 10-3  
       STEOM_ACT            STMACT         CANONICAL   [  0]    ***   
       STEOM_OCUT           STOCUT            200               ***   
       STEOM_VCUT           STVCUT            100               ***   
       SUBGROUP             ISUBGP         DEFAULT     [  0]    ***   
       SUBGRPAXIS           ISBXYZ         X           [  0]    ***   
       SYMMETRY             ISYM           ON          [  0]    ***   
       SYM_CHECK            ISYMCK         OVERRIDE    [  1]    ***   
       T3_EXTRAPOL          IT3EXT         OFF         [  0]    ***   
       T4_EXTRAPOL          IT4EXP         OFF         [  0]    ***   
       TAMP_SUM             IEVERY              5               ***   
       TESTSUITE            ITESTS         OFF         [  0]    ***   
       THC                  ITHC           OFF         [  0]    ***   
       THERMOCH             ITHERM         OFF         [  0]    ***   
       TOL_CHOLESK          ITOLCH          10D-  4             ***   
       TRANGRAD             IRESRM         OFF         [  0]    ***   
       TRANS_INV            ITRAIN         USE         [  0]    ***   
       TREAT_PERT           ITREAT         SIMULTANEOUS[  0]    ***   
       TRIP_ALGORI          ITRALG         NORMAL      [  0]    ***   
       TWOSTATE             ITWOST         OFF         [  0]    ***   
       UIJ_THRESHO          IUIJTH              1               ***   
       UNITS                IUNITS         ANGSTROM    [  0]    ***   
       UNOS                 IUNOS          OFF         [  0]    ***   
       UPDATE_HESS          IHUPDT         ON          [  1]    ***   
       VIBPHASE             ISETPH         STANDARD    [  0]    ***   
       VIBRATION            IVIB           NO          [  0]    ***   
       VIB_ALGORIT          IGEALG         STANDARD    [  0]    ***   
       VNATORB              IVNORB         OFF         [  0]    ***   
       VTRAN                IVTRAN         FULL/PARTIAL[  0]    ***   
       X2CKEY               IX2CKE         MOLVDINT    [  0]    ***   
       XFIELD               IXEFLD              0             x 10-6  
       XFORM_TOL            IXFTOL          10D- 11             ***   
       YFIELD               IYEFLD              0             x 10-6  
       ZFIELD               IZEFLD              0             x 10-6  
       ZSCALE_EXP           IZEXPS         OFF         [  0]    ***   
    -------------------------------------------------------------------
 cholesky/tol? F   1.0000000000000005E-004
  @GETXYZ-I,     2 atoms read from ZMAT.
Line Symbol    AtNr   At. Mass
  1  H          1     1.00783
  2  F          9    18.99840
Line Symbol    AtNr   At. Mass
  1  H          1     1.00783
  2  F          9    18.99840
                    1                    4                    0
   Rotational constants (in cm-1): 
         20.9469530899            20.9469530899
   Rotational constants (in MHz): 
     627973.9434214976        627973.9434214976
********************************************************************************
   The full molecular point group is CXv .
   The largest Abelian subgroup of the full molecular point group is C2v .
   The computational point group is C2v .
********************************************************************************


 ----------------------------------------------------------------
         Coordinates used in calculation (QCOMP) 
 ----------------------------------------------------------------
 Z-matrix   Atomic            Coordinates (in bohr)
  Symbol    Number           X              Y              Z
 ----------------------------------------------------------------
     H         1        -0.00000000     0.00000000     1.64558445
     F         9         0.00000000     0.00000000    -0.08729477
 ----------------------------------------------------------------

   Interatomic distance matrix (Angstroms) 

                 H             F    
                [ 1]        [ 2]
  H    [ 1]     0.00000
  F    [ 2]     0.91700     0.00000
   Rotational constants (order x, y, z, in cm-1): 
         20.9469530899             0.0000000000
   Rotational constants (order x, y, z, in MHz): 
     627973.9434214976             0.0000000000
  ECPDATA file not present.   Using default ECPDATA. 
 --invoking executable--
/blue/bartlett/z.windom/TBLIS/set_ecpdata
--executable set_ecpdata finished with status     0 in        0.13 seconds (walltime).
 cholesky/tol? F   1.0000000000000005E-004
  There are    6 basis functions.
 @GEOPT-W, Archive file not created for single-point calculation.
 @CHECKOUT-I, Total execution time (CPU/WALL):         0.19/       1.05 seconds.
--executable xjoda finished with status     0 in        1.19 seconds (walltime).
 --invoking executable--
/blue/bartlett/z.windom/TBLIS/xnmol
OMP_NUM_THREADS not specified; defaulting to 1
Running with 1 threads/proc

********************************************************************************
                   INPUT FROM MOL FILE                                          
********************************************************************************
INTGRL        1    0    1    0    0    0    0    0    0
         *** CFOUR Program System (Release V0.1) *** 
nih test
    2    2 X  Y       0.10E-08              0    0
   9999.00      3.00
          1.00000000    1    1    1
H #1  -0.000000000000000   0.000000000000000   1.645584451156334
    6    1
   35.523220999999999        9.1635999999999992E-003
   6.5131439999999996        4.9361500000000003E-002
   1.8221430000000001       0.16853830000000000     
  0.62595500000000004       0.37056280000000003     
  0.24307699999999999       0.41649150000000001     
  0.10011200000000001       0.13033410000000001     
          9.00000000    1    2    1    1
F #2   0.000000000000000   0.000000000000000  -0.087294768295906
   12    2
   1728.6265739999999        9.1635999999999992E-003   0.0000000000000000     
   316.94179000000003        4.9361500000000003E-002   0.0000000000000000     
   88.668891000000002       0.16853830000000000        0.0000000000000000     
   30.460156999999999       0.37056280000000003        0.0000000000000000     
   11.828569999999999       0.41649150000000001        0.0000000000000000     
   4.8716590000000002       0.13033410000000001        0.0000000000000000     
   67.032280999999998        0.0000000000000000       -1.3252800000000000E-002
   13.267438000000000        0.0000000000000000       -4.6991699999999997E-002
   4.1235099999999996        0.0000000000000000       -3.3785400000000000E-002
   1.5864630000000000        0.0000000000000000       0.25024180000000001     
  0.68900200000000000        0.0000000000000000       0.59511729999999996     
  0.31581999999999999        0.0000000000000000       0.24070620000000001     
    6    1
   67.032280999999998        3.7596999999999999E-003
   13.267438000000000        3.7679400000000002E-002
   4.1235099999999996       0.17389669999999999     
   1.5864630000000000       0.41803639999999997     
  0.68900200000000000       0.42585950000000000     
  0.31581999999999999       0.10170830000000000     
FINISH
                                                                                
********************************************************************************

ONE- AND TWO-ELECTRON INTEGRALS OVER SYMMETRY-ADAPTED AOS ARE CALCULATED.

SPHERICAL HARMONICS ARE USED.

REFLECTION IN THE YZ-PLANE
REFLECTION IN THE XZ-PLANE

INTEGRALS LESS THAN 1e-14 ARE NEGLECTED.

One-electron integrals took 0.013 seconds

  @TWOEL-I,         49 INTEGRALS OF SYMMETRY TYPE  I I I I
  @TWOEL-I,         17 INTEGRALS OF SYMMETRY TYPE  I J I J
  @TWOEL-I,         17 INTEGRALS OF SYMMETRY TYPE  I I J J
  @TWOEL-I, TOTAL NUMBER OF 2-E INTEGRALS 83

Two-electron integrals took 0.099 seconds

Nuclear Repulsion Energy: 5.193668375136315

Nuclear repulsion energy: 5.193668375136315
--executable xnmol finished with status     0 in        0.59 seconds (walltime).
 --invoking executable--
/blue/bartlett/z.windom/TBLIS/xnscf
OMP_NUM_THREADS not specified; defaulting to 1
Running with 1 threads/proc

There are 6 functions in the AO basis

There are 4 irreducible representations:
    Irrep 1 has 4 functions
    Irrep 2 has 1 functions
    Irrep 3 has 1 functions
    Irrep 4 has 0 functions

Parameters for SCF calculation:

        SCF reference function: RHF
  Maximum number of iterations: 150
     Full symmetry point group: CXv 
     Computational point group: C2v 
        Initial density matrix: MOREAD
     SCF convergence tolerance: 10**(-7)
 DIIS convergence acceleration: ON
         Latest start for DIIS: 2
                    DIIS order: 10

Smallest overlap matrix eigenvalues:
    Symmetry       Eigenvalue
           1  4.1285267714e-01
           2  1.0000000000e+00
           3  1.0000000000e+00

Occupancies from core Hamiltonian:
    Alpha: [3,1,1,0]
     Beta: [3,1,1,0]

Initial guess orbitals from core Hamiltonian.

--------------------------------------------------------------------
Iteration         Total Energy            Largest Density Difference
--------------------------------------------------------------------
Current occupation vector: [3,1,1,0]
     1              -98.738946661688644      1.088624001662266e+00
Current occupation vector: [3,1,1,0]
     2              -99.485297458654387      1.402959347883728e-01
Current occupation vector: [3,1,1,0]
     3              -99.499712398237648      1.333724677729442e-02
Current occupation vector: [3,1,1,0]
     4              -99.499858359997731      1.143950495068269e-03
Current occupation vector: [3,1,1,0]
     5              -99.499858939339106      1.136829146819451e-05
Current occupation vector: [3,1,1,0]
     6              -99.499858939393107      1.086270553507518e-07
Current occupation vector: [3,1,1,0]
     7              -99.499858939393178      5.312367212795266e-11

SCF has converged.

Total electron number: 10.0

Final occupancies: [3,1,1,0]

E(SCF) = -99.49985893939315

Orbital eigenvalues (alpha, 1H = 27.2113834 eV)

       MO #        E(hartree)               E(eV)           FULLSYM    COMPSYM
       ----   --------------------   --------------------   -------   ---------
    1     1         -26.2371943419        -713.9503545768     A1       A1   (1)
    2     2          -1.4851333629         -40.4125333367     A1       A1   (1)
    3     3          -0.5937462444         -16.1566566993     A1       A1   (1)
    4     5          -0.4735775142         -12.8866993085     E        B1   (2)
    5     6          -0.4735775142         -12.8866993085     E        B2   (3)
  +++++++++++++++++++++++++++++++++++++++++++++++++++++++++++++++++++++++++++++
    6     4           0.6174208821          16.8008763424     A1       A1   (1)

--executable xnscf finished with status     0 in        0.41 seconds (walltime).
  in runvcc 
 --invoking executable--
/blue/bartlett/z.windom/TBLIS/xvprop
 @GETMEM-I,  Allocated    3814 MB of main memory.
   Property integrals will be calculated.
    --------------------------------------------------------------
                                   Property evaluated at 
    Property type                X             Y             Z
    --------------------------------------------------------------
    Dipole moment               ----          ----          ----  
    Quadrupole moment           ----          ----          ----  
    Octopole moment             ----          ----          ----  
    Relativisitic corr.         ----          ----          ----  
    Second moment            0.0000000     0.0000000     0.0000000
    Electron density        -0.0000000     0.0000000     1.6455845
    Electron density         0.0000000     0.0000000    -0.0872948
    Field gradient          -0.0000000     0.0000000     1.6455845
    Field gradient           0.0000000     0.0000000    -0.0872948
    Potential               -0.0000000     0.0000000     1.6455845
    Potential                0.0000000     0.0000000    -0.0872948
    --------------------------------------------------------------
 @CHECKOUT-I, Total execution time (CPU/WALL):         0.02/       0.04 seconds.
--executable xvprop finished with status     0 in        0.12 seconds (walltime).
 --invoking executable--
/blue/bartlett/z.windom/TBLIS/xncc
OMP_NUM_THREADS not specified; defaulting to 1
nt: 64
Running with 1 threads/proc

Dropping occupied orbital 1 in irrep 1 (1)

Alpha Molecular Orbitals:
-------------------------

Frozen core:

  Irrep 1:
    ---- (   1)    -26.237194

Occupied:

  Irrep 1:
       1 (   2)     -1.485133
       2 (   3)     -0.593746

  Irrep 2:
       3 (   4)     -0.473578

  Irrep 3:
       4 (   5)     -0.473578

Virtual:

  Irrep 1:
       5 (   6)      0.617421

Full RHF integral transformation

Occupations by irrep:
Frozen core:    [1,0,0,0]
Occupied:       [2,1,1,0]
Virtual:        [1,0,0,0]
Frozen virtual: [0,0,0,0]

Processing IIII:
  Pass 1, transforming orbitals:
    Occupied:   1:3     1:1     1:1   ---:---
    Virtual:    1:1   ---:--- ---:--- ---:---

Processing IIJJ:
  Pass 1, transforming orbitals:
    Occupied:   1:3     1:1     1:1   ---:---
    Virtual:    1:1   ---:--- ---:--- ---:---

Processing IJIJ:
  Pass 1, transforming orbitals:
    Occupied:   1:3     1:1     1:1   ---:---
    Virtual:    1:1   ---:--- ---:--- ---:---

Processing IJKL:
  Pass 1, transforming orbitals:
    Occupied:   1:3     1:1     1:1   ---:---
    Virtual:    1:1   ---:--- ---:--- ---:---

Integral transformation took 0.050 seconds at 0.000 Gflops/sec

sym_1234:          0.000004 s          1 x    0.000000 gflops/sec
layer1_axpby:      0.000010 s          3 x    0.004094 gflops/sec
weight:            0.000013 s          1 x    0.000000 gflops/sec
sym_12:            0.000056 s          1 x    0.000000 gflops/sec

MP2 correlation energy: -0.017366689719756075

Non-iterative calculation of MP2 took 0.000 cpu seconds and 0.000 walltime seconds at 0.001 Gflops/sec

Total MP2 energy: -99.5172256291129

layer1_axpby:       0.000002 s          2 x    0.003648 gflops/sec
weight:             0.000006 s          2 x    0.000000 gflops/sec
layer1_spinad:      0.000020 s          2 x    0.003533 gflops/sec
layer1_dot:         0.000021 s          2 x    0.000000 gflops/sec

Using DIIS to accelerate the convergence of T1 and T2
Beginning iterative solution of LCCD equations:

Using standard CC algorithm

It. Correlation Energy T2 Residual CPU Time (s) Walltime (s)
-------------------------------------------------------------
  1  -0.017366689719756 2.45780e-02        0.000        0.000
  2  -0.022931635176927 9.28958e-03        0.000        0.000
  3  -0.026066566507447 3.21695e-04        0.000        0.000
  4  -0.026096612193327 2.59271e-05        0.000        0.000
  5  -0.026094059886806 3.90524e-07        0.000        0.000

   A    B    I    J                     A    B    I    J                  
------------------------------------ ------------------------------------ 
   6    6    3    3 -0.1105015671372    6    6    2    2 -0.0249652168955 
   6    6    3    2 -0.0310376421182    6    6    4    4 -0.0174032482410 
   6    6    2    3 -0.0310376421182    6    6    5    5 -0.0174032482410 

It. Correlation Energy T2 Residual CPU Time (s) Walltime (s)
-------------------------------------------------------------
  6  -0.026094058231127 4.21565e-14        0.000        0.000

LCCD iterations converged in 6 cycles and 0.001 seconds (0.000 s/it.) at 0.003 Gflops/sec

LCCD correlation energy: -0.026094058231126566

layer1_fill:         0.000000 s          1 x    0.000000 gflops/sec
layer1_dot:          0.000001 s         12 x    0.000000 gflops/sec
realloc:             0.000006 s          1 x    0.000000 gflops/sec
layer1_axpby:        0.000009 s         20 x    0.029278 gflops/sec
weight:              0.000014 s          6 x    0.000000 gflops/sec
layer1_sym:          0.000055 s         12 x    0.002191 gflops/sec
layer1_spinad:       0.000123 s         30 x    0.008765 gflops/sec
c2_into_z2_rhf:      0.000424 s          6 x    0.003768 gflops/sec
lccd_rhf:            0.000479 s          6 x    0.003459 gflops/sec

LCCD correlation energy: -0.02609405823112638

Total LCCD energy: -99.52595299762427

--executable xncc finished with status     0 in        0.69 seconds (walltime).
  The final electronic energy is       -99.525952997624273 a.u. 
  This computation required                            3.34 seconds (walltime).
